##############################################################################
###               Crystal structure data exported by Match!                ###
##############################################################################
###                           Data published by:                           ###
###                                                                        ###
###               COD (Crystallography Open Database)
##############################################################################
data_2310295
_citation_journal_full    'Acta Crystallographica A (24,1968-38,1982)'
_citation_journal_volume  '31'
_citation_page_first  '158'
_citation_page_last   '159'
_citation_year  '1975'
_citation_title  'An X-ray determination of the thermal expansion of silver and copper basealloys at high temperatures. II. Cu - Ga'
loop_
_publ_author_name
  'Halder S.K.'
  'Sen Gupta S.P.'
_chemical_formula_sum  'Cu0.85 Ga0.15'
_chemical_name_common  '(Cu0.85 Ga0.15)'
_symmetry_space_group_name_H-M 'F m -3 m'
_space_group_IT_number 225
_space_group_crystal_system 'cubic'
loop_
_symmetry_equiv_pos_as_xyz
   'x, y, z'
   'x+1/2, y+1/2, z'
   'x+1/2, y, z+1/2'
   'x, y+1/2, z+1/2'
   '-y, x, z'
   '-y+1/2, x+1/2, z'
   '-y+1/2, x, z+1/2'
   '-y, x+1/2, z+1/2'
   '-x, -y, z'
   '-x+1/2, -y+1/2, z'
   '-x+1/2, -y, z+1/2'
   '-x, -y+1/2, z+1/2'
   'y, -x, z'
   'y+1/2, -x+1/2, z'
   'y+1/2, -x, z+1/2'
   'y, -x+1/2, z+1/2'
   'x, -z, y'
   'x+1/2, -z+1/2, y'
   'x+1/2, -z, y+1/2'
   'x, -z+1/2, y+1/2'
   'x, -y, -z'
   'x+1/2, -y+1/2, -z'
   'x+1/2, -y, -z+1/2'
   'x, -y+1/2, -z+1/2'
   'x, z, -y'
   'x+1/2, z+1/2, -y'
   'x+1/2, z, -y+1/2'
   'x, z+1/2, -y+1/2'
   'z, y, -x'
   'z+1/2, y+1/2, -x'
   'z+1/2, y, -x+1/2'
   'z, y+1/2, -x+1/2'
   '-x, y, -z'
   '-x+1/2, y+1/2, -z'
   '-x+1/2, y, -z+1/2'
   '-x, y+1/2, -z+1/2'
   '-z, y, x'
   '-z+1/2, y+1/2, x'
   '-z+1/2, y, x+1/2'
   '-z, y+1/2, x+1/2'
   'z, x, y'
   'z+1/2, x+1/2, y'
   'z+1/2, x, y+1/2'
   'z, x+1/2, y+1/2'
   'y, z, x'
   'y+1/2, z+1/2, x'
   'y+1/2, z, x+1/2'
   'y, z+1/2, x+1/2'
   '-y, -z, x'
   '-y+1/2, -z+1/2, x'
   '-y+1/2, -z, x+1/2'
   '-y, -z+1/2, x+1/2'
   'z, -x, -y'
   'z+1/2, -x+1/2, -y'
   'z+1/2, -x, -y+1/2'
   'z, -x+1/2, -y+1/2'
   '-y, z, -x'
   '-y+1/2, z+1/2, -x'
   '-y+1/2, z, -x+1/2'
   '-y, z+1/2, -x+1/2'
   '-z, -x, y'
   '-z+1/2, -x+1/2, y'
   '-z+1/2, -x, y+1/2'
   '-z, -x+1/2, y+1/2'
   '-z, x, -y'
   '-z+1/2, x+1/2, -y'
   '-z+1/2, x, -y+1/2'
   '-z, x+1/2, -y+1/2'
   'y, -z, -x'
   'y+1/2, -z+1/2, -x'
   'y+1/2, -z, -x+1/2'
   'y, -z+1/2, -x+1/2'
   'y, x, -z'
   'y+1/2, x+1/2, -z'
   'y+1/2, x, -z+1/2'
   'y, x+1/2, -z+1/2'
   '-y, -x, -z'
   '-y+1/2, -x+1/2, -z'
   '-y+1/2, -x, -z+1/2'
   '-y, -x+1/2, -z+1/2'
   '-x, z, y'
   '-x+1/2, z+1/2, y'
   '-x+1/2, z, y+1/2'
   '-x, z+1/2, y+1/2'
   '-x, -z, -y'
   '-x+1/2, -z+1/2, -y'
   '-x+1/2, -z, -y+1/2'
   '-x, -z+1/2, -y+1/2'
   'z, -y, x'
   'z+1/2, -y+1/2, x'
   'z+1/2, -y, x+1/2'
   'z, -y+1/2, x+1/2'
   '-z, -y, -x'
   '-z+1/2, -y+1/2, -x'
   '-z+1/2, -y, -x+1/2'
   '-z, -y+1/2, -x+1/2'
   '-x, -y, -z'
   '-x+1/2, -y+1/2, -z'
   '-x+1/2, -y, -z+1/2'
   '-x, -y+1/2, -z+1/2'
   'y, -x, -z'
   'y+1/2, -x+1/2, -z'
   'y+1/2, -x, -z+1/2'
   'y, -x+1/2, -z+1/2'
   'x, y, -z'
   'x+1/2, y+1/2, -z'
   'x+1/2, y, -z+1/2'
   'x, y+1/2, -z+1/2'
   '-y, x, -z'
   '-y+1/2, x+1/2, -z'
   '-y+1/2, x, -z+1/2'
   '-y, x+1/2, -z+1/2'
   '-x, z, -y'
   '-x+1/2, z+1/2, -y'
   '-x+1/2, z, -y+1/2'
   '-x, z+1/2, -y+1/2'
   '-x, y, z'
   '-x+1/2, y+1/2, z'
   '-x+1/2, y, z+1/2'
   '-x, y+1/2, z+1/2'
   '-x, -z, y'
   '-x+1/2, -z+1/2, y'
   '-x+1/2, -z, y+1/2'
   '-x, -z+1/2, y+1/2'
   '-z, -y, x'
   '-z+1/2, -y+1/2, x'
   '-z+1/2, -y, x+1/2'
   '-z, -y+1/2, x+1/2'
   'x, -y, z'
   'x+1/2, -y+1/2, z'
   'x+1/2, -y, z+1/2'
   'x, -y+1/2, z+1/2'
   'z, -y, -x'
   'z+1/2, -y+1/2, -x'
   'z+1/2, -y, -x+1/2'
   'z, -y+1/2, -x+1/2'
   '-z, -x, -y'
   '-z+1/2, -x+1/2, -y'
   '-z+1/2, -x, -y+1/2'
   '-z, -x+1/2, -y+1/2'
   '-y, -z, -x'
   '-y+1/2, -z+1/2, -x'
   '-y+1/2, -z, -x+1/2'
   '-y, -z+1/2, -x+1/2'
   'y, z, -x'
   'y+1/2, z+1/2, -x'
   'y+1/2, z, -x+1/2'
   'y, z+1/2, -x+1/2'
   '-z, x, y'
   '-z+1/2, x+1/2, y'
   '-z+1/2, x, y+1/2'
   '-z, x+1/2, y+1/2'
   'y, -z, x'
   'y+1/2, -z+1/2, x'
   'y+1/2, -z, x+1/2'
   'y, -z+1/2, x+1/2'
   'z, x, -y'
   'z+1/2, x+1/2, -y'
   'z+1/2, x, -y+1/2'
   'z, x+1/2, -y+1/2'
   'z, -x, y'
   'z+1/2, -x+1/2, y'
   'z+1/2, -x, y+1/2'
   'z, -x+1/2, y+1/2'
   '-y, z, x'
   '-y+1/2, z+1/2, x'
   '-y+1/2, z, x+1/2'
   '-y, z+1/2, x+1/2'
   '-y, -x, z'
   '-y+1/2, -x+1/2, z'
   '-y+1/2, -x, z+1/2'
   '-y, -x+1/2, z+1/2'
   'y, x, z'
   'y+1/2, x+1/2, z'
   'y+1/2, x, z+1/2'
   'y, x+1/2, z+1/2'
   'x, -z, -y'
   'x+1/2, -z+1/2, -y'
   'x+1/2, -z, -y+1/2'
   'x, -z+1/2, -y+1/2'
   'x, z, y'
   'x+1/2, z+1/2, y'
   'x+1/2, z, y+1/2'
   'x, z+1/2, y+1/2'
   '-z, y, -x'
   '-z+1/2, y+1/2, -x'
   '-z+1/2, y, -x+1/2'
   '-z, y+1/2, -x+1/2'
   'z, y, x'
   'z+1/2, y+1/2, x'
   'z+1/2, y, x+1/2'
   'z, y+1/2, x+1/2'
_cell_length_a        3.65730
_cell_length_b        3.65730
_cell_length_c        3.65730
_cell_angle_alpha    90.0000
_cell_angle_beta     90.0000
_cell_angle_gamma    90.0000
_cell_formula_units_Z 4
loop_
_atom_site_label
_atom_site_fract_x
_atom_site_fract_y
_atom_site_fract_z
_atom_site_occupancy
_atom_site_B_iso_or_equiv
ga      0.000   0.000   0.000    0.15000    1.000
cu      0.000   0.000   0.000    0.85000    1.000
_cell_measurement_wavelength    1.541874
_cell_measurement_radiation   'x-rays'
_exptl_crystal_density_diffrn    8.753
loop_
_pd_peak_d_spacing
_pd_peak_intensity
     2.111543       1000.00
     1.828650        453.24
     1.293051        224.58
     1.102717        236.43
     1.055772         67.90
     0.914325         37.74
     0.839042        163.93
     0.817797        183.55
##############################################################################
###                            Comments                                    ###
##############################################################################
###   Diffraction pattern calculated by Match!. 
###   I/Ic calculated by Match!. 
##############################################################################


